1500
 Atoms. Timestep: 0
O 5.38951 6.99707 5.28595
H 5.60772 6.96887 6.26144
H 4.43105 6.74555 5.15139
O 7.05129 11.2996 6.2588
H 6.45911 10.8167 5.61371
H 6.63629 12.1769 6.49971
O 3.53263 12.5695 9.68777
H 3.91551 12.263 10.5592
H 3.19411 13.5056 9.78329
O 28.2672 19.3602 21.8098
H 27.563 19.8032 21.2551
H 29.1692 19.5672 21.431
O 22.775 24.271 8.60476
H 22.1804 24.6134 9.33226
H 22.7516 23.2713 8.59798
O 21.1875 28.5715 28.1965
H 20.4757 28.2003 28.7928
H 21.379 27.9213 27.4613
O 20.2517 9.23682 5.94594
H 19.5715 8.70631 5.44009
H 21.1642 8.87261 5.75979
O 5.80968 10.2382 23.2258
H 6.27113 11.0019 23.6772
H 6.40613 9.43557 23.2355
O 13.4001 17.3203 14.4687
H 13.9221 17.577 15.2821
H 14.0088 16.8844 13.8058
O 5.33031 16.9925 26.9177
H 5.21694 17.27 25.9637
H 5.23728 15.9994 26.9893
O 28.4943 14.1088 17.5501
H 29.1686 14.0828 18.2881
H 27.593 13.8735 17.9136
O 25.0128 21.9255 13.2863
H 25.3375 22.0017 14.229
H 25.6612 21.3817 12.7534
O 15.7971 22.4044 26.5535
H 14.9359 22.8468 26.8036
H 16.5215 23.0917 26.4997
O 18.1301 3.98707 18.5239
H 17.2359 4.20839 18.1348
H 18.2391 2.99388 18.5652
O 7.7761 4.31954 24.278
H 7.40552 5.17324 24.6438
H 7.72951 3.60829 24.9794
O 5.89511 6.32322 26.6542
H 6.71718 6.79185 26.3309
H 6.10333 5.82923 27.4984
O 15.2635 2.79717 27.9153
H 16.1791 2.66221 28.2941
H 14.9249 1.93194 27.5455
O 19.2464 11.455 7.30337
H 19.7334 10.7622 6.77145
H 18.6124 11.948 6.70754
O 4.34138 15.1832 6.24862
H 4.63731 14.3896 6.78018
H 3.5384 15.5934 6.68102
O 20.2818 2.37223 0.777334
H 20.8803 1.67996 29.1178
H 20.2007 2.21074 1.76087
O 26.3108 19.8303 9.13222
H 25.9476 18.8991 9.10247
H 26.7761 20.0343 8.27086
O 27.7064 8.20617 15.2845
H 27.2977 8.63381 16.0908
H 27.7205 8.86247 14.5301
O 9.38049 17.7049 17.8489
H 9.04908 16.9303 17.3101
H 9.29789 18.5442 17.3116
O 25.3122 22.6852 9.55102
H 25.1804 21.6992 9.65396
H 26.0848 22.8561 8.93958
O 28.8567 20.1387 26.3357
H 28.0893 20.6241 25.9167
H 0.822035 19.9799 25.6486
O 18.2004 13.3682 0.684054
H 18.7873 12.9662 1.38688
H 18.6724 13.3456 28.5465
O 23.9936 14.7681 27.7228
H 24.8744 15.2365 27.7923
H 23.8133 14.5372 26.7667
O 6.0076 3.61401 2.29862
H 6.53616 4.05247 3.02551
H 5.97316 2.62772 2.46004
O 9.1044 19.9908 16.3739
H 9.85782 19.8814 15.7255
H 9.32749 20.7164 17.0248
O 23.6119 9.84095 4.91471
H 24.5898 9.77289 4.71714
H 23.1832 8.94643 4.788
O 13.0385 23.4144 24.2331
H 13.5597 22.9171 23.5396
H 12.822 22.7999 24.9917
O 27.0352 22.2763 5.47931
H 26.1188 22.6767 5.47422
H 27.5124 22.5254 4.63658
O 4.49844 3.73637 18.3267
H 4.60024 4.67307 18.6617
H 3.63147 3.35853 18.6516
O 20.7164 6.50211 24.718
H 21.4131 6.97481 24.1783
H 19.8129 6.68781 24.3319
O 5.72208 26.4665 14.6939
H 5.7351 27.465 14.6406
H 5.46453 26.0885 13.8047
O 11.2462 16.3665 13.4299
H 11.5292 15.5497 12.927
H 11.9667 16.629 14.0718
O 7.57266 18.1027 10.9386
H 7.09511 18.4553 11.7434
H 7.55453 17.103 10.9516
O 11.104 19.5334 14.687
H 10.7985 19.3706 13.7489
H 12.0459 19.214 14.791
O 20.8272 7.77241 27.2965
H 19.9468 7.79735 27.7701
H 20.7557 7.18418 26.4909
O 22.9593 17.0187 7.55541
H 23.5098 16.1941 7.42587
H 22.3247 17.1197 6.78914
O 5.06508 9.76521 4.61563
H 4.10202 9.93255 4.82659
H 5.29492 8.81742 4.83668
O 16.1254 8.80048 10.5806
H 16.337 8.16005 9.8423
H 16.5418 9.68768 10.3818
O 18.2745 7.6324 4.40363
H 17.8536 6.90699 4.94826
H 19.054 7.26089 3.89918
O 1.74986 27.2478 14.8084
H 0.818906 27.1236 15.1518
H 2.38359 27.3125 15.5792
O 24.0231 3.05715 2.86853
H 24.4849 2.91611 1.99283
H 24.4068 3.86163 3.32194
O 28.5234 22.8338 27.245
H 28.7414 23.767 26.9592
H 29.1544 22.1946 26.8053
O 0.645858 5.86074 6.1352
H 28.934 5.70703 7.01202
H 28.7597 5.64309 5.38963
O 12.1203 1.10382 8.05299
H 11.4648 1.7829 8.38351
H 12.8732 1.56717 7.58559
O 2.2397 8.16009 26.0624
H 2.66854 7.96635 26.9447
H 2.68198 7.61516 25.35
O 24.0222 4.45589 20.6042
H 23.0607 4.37186 20.8657
H 24.0917 4.53092 19.6094
O 18.1279 28.376 6.11677
H 17.9023 27.4471 6.41039
H 19.0599 28.3941 5.75475
O 4.8901 13.3051 4.06585
H 4.79459 14.012 4.76672
H 4.5027 12.447 4.40291
O 1.85558 3.6596 22.3203
H 2.0445 4.61972 22.1142
H 2.70551 3.13489 22.2722
O 26.3756 20.1809 17.9805
H 26.9387 19.3704 17.8193
H 26.4511 20.4538 18.9395
O 7.55357 9.76406 8.52391
H 7.50088 10.5181 7.86917
H 7.64894 10.1319 9.44891
O 25.0776 5.38933 4.23707
H 25.0754 5.84388 3.34635
H 26.0158 5.1489 4.48618
O 20.1934 10.7394 17.909
H 20.5635 11.2729 17.1484
H 20.1044 9.78249 17.6327
O 10.5618 1.61391 25.7765
H 11.0182 1.00299 25.1297
H 9.57361 1.57958 25.627
O 23.2702 7.86971 15.245
H 23.8431 7.05498 15.1555
H 23.6991 8.51036 15.8819
O 21.7707 7.47485 4.69849
H 22.2129 6.72729 5.19405
H 21.3468 7.1181 3.86599
O 23.9728 18.9017 18.462
H 24.2869 18.4633 19.3041
H 24.7034 19.476 18.0926
O 12.02 3.99574 23.5503
H 11.9315 3.72032 24.5076
H 11.1114 4.15355 23.1636
O 24.2685 24.4444 13.7402
H 24.6081 24.7322 12.8447
H 24.2523 23.4456 13.7852
O 21.0663 14.6187 15.1347
H 21.1974 14.8377 16.1016
H 21.3271 15.4061 14.5762
O 20.6344 6.35643 15.4706
H 21.2381 7.15249 15.4274
H 20.1092 6.29 14.6222
O 10.9921 10.7382 2.86304
H 11.992 10.7238 2.84952
H 10.6712 11.6816 2.77899
O 25.8099 13.3528 18.3427
H 24.8283 13.1625 18.3313
H 26.3123 12.5033 18.5035
O 2.23613 29.1904 22.0483
H 1.61225 28.9893 22.8035
H 1.76248 29.0513 21.1787
O 23.1933 12.7095 17.9039
H 22.9386 12.1294 18.6777
H 22.7119 12.4011 17.0835
O 7.04443 20.4342 14.4105
H 7.08674 21.4031 14.1669
H 7.73923 20.2334 15.1011
O 2.18249 5.35495 15.6842
H 1.23236 5.08312 15.837
H 2.62753 5.52042 16.5643
O 2.37922 16.4956 0.73509
H 2.60477 17.4698 0.722034
H 1.50798 16.3489 29.0104
O 13.5013 6.82321 7.77262
H 13.6203 5.92691 7.34544
H 14.3976 7.23001 7.94916
O 22.7206 20.1206 16.3974
H 23.0486 19.6218 17.1996
H 23.1257 19.7276 15.5719
O 20.5013 28.447 4.71765
H 20.9817 27.5699 4.71101
H 21.1602 29.1889 4.59402
O 18.7521 1.38387 15.3118
H 18.6425 1.01174 16.2334
H 17.8653 1.39711 14.8499
O 15.6683 16.4748 10.6268
H 15.1574 16.7693 9.81922
H 16.5193 16.0344 10.3405
O 16.059 20.6787 24.689
H 15.1382 20.3899 24.4267
H 15.9983 21.3963 25.3828
O 18.5929 22.0804 9.92354
H 19.3479 21.7249 9.37254
H 18.957 22.6528 10.6582
O 3.0071 6.22098 13.2691
H 3.94431 6.53538 13.1181
H 2.92343 5.85541 14.1961
O 27.0386 15.6428 5.2578
H 26.9628 14.6466 5.2999
H 27.953 15.8944 4.94075
O 26.9765 1.27298 19.8622
H 26.422 1.42188 19.0434
H 26.4259 1.45898 20.676
O 4.97469 19.7083 16.1331
H 4.77558 18.7353 16.0166
H 5.76838 19.955 15.577
O 23.1706 7.92735 28.6767
H 22.2042 7.88296 28.4237
H 23.3269 8.72649 29.2572
O 22.1911 1.97129 4.69733
H 22.3831 2.48366 5.53436
H 22.778 2.30559 3.95989
O 3.2867 18.9456 11.9509
H 3.25381 19.9312 12.117
H 3.04418 18.7598 10.9987
O 25.3008 28.0853 26.4118
H 24.9392 29.0069 26.5527
H 24.9332 27.4725 27.1114
O 22.5693 21.0023 22.2389
H 23.1626 20.4865 22.857
H 22.1055 20.3707 21.6177
O 6.96082 4.95047 4.45661
H 7.63375 5.50695 3.96927
H 6.22847 5.53822 4.80043
O 14.1219 4.15708 7.10131
H 14.1236 3.36981 6.48471
H 15.064 4.42752 7.29929
O 22.5594 3.35987 7.0323
H 22.8069 4.31626 6.87722
H 23.377 2.83983 7.27944
O 11.6176 27.3527 7.11081
H 11.946 28.0354 7.76345
H 10.9273 27.765 6.51617
O 17.7838 21.8537 23.0668
H 17.1769 21.2499 23.5836
H 18.7351 21.603 23.2462
O 1.84981 20.3698 20.9323
H 2.33321 19.8302 20.2429
H 2.47238 20.5835 21.6851
O 15.8339 18.6081 12.3544
H 15.8103 17.8732 11.6765
H 16.4075 18.3319 13.1256
O 13.087 14.4809 26.0853
H 12.2239 14.5079 25.5809
H 13.5996 13.6626 25.8253
O 21.8204 11.4546 19.9614
H 21.2882 10.8885 19.3318
H 21.3238 11.5507 20.824
O 3.94783 15.7968 18.3393
H 4.11567 16.2631 17.4707
H 4.63557 15.0832 18.4728
O 24.898 2.04376 21.4076
H 24.4019 2.08128 22.2751
H 24.9474 2.96082 21.012
O 24.1016 20.0083 24.2263
H 23.4074 19.5791 24.8041
H 24.892 19.4009 24.1477
O 9.51605 23.0484 21.2237
H 9.74002 22.2594 20.6515
H 10.351 23.5591 21.4288
O 8.82589 16.2254 15.2725
H 8.15007 16.4629 14.5747
H 9.74449 16.291 14.8828
O 20.8843 17.2205 5.97683
H 20.3031 17.1892 5.16368
H 20.3167 17.3679 6.7868
O 9.36502 1.33163 11.4576
H 8.61037 1.69921 12.0011
H 9.5209 29.1196 11.7071
O 22.6371 21.4499 12.0529
H 23.5413 21.5009 12.4769
H 22.7321 21.1685 11.0981
O 5.23148 13.2442 7.83716
H 4.78978 12.7763 8.60269
H 6.09041 13.6522 8.14668
O 4.69673 28.2523 25.5205
H 3.70304 28.3482 25.4624
H 5.13363 29.0372 25.0812
O 21.3183 26.6958 17.3456
H 21.3718 25.7265 17.5853
H 21.9954 26.9024 16.6393
O 4.89047 16.8736 15.9154
H 5.6861 16.3093 15.695
H 4.29547 16.9382 15.1142
O 2.09037 2.98675 19.483
H 1.80519 3.46778 20.312
H 1.80562 2.02975 19.5383
O 26.5735 20.2598 11.9283
H 26.5705 20.1516 10.9342
H 27.5172 20.3086 12.2554
O 20.5209 11.4446 22.1753
H 20.7993 12.0968 22.8803
H 19.6395 11.0423 22.4227
O 26.9464 11.2529 2.62061
H 26.3194 11.3506 1.84778
H 27.8323 11.6516 2.38356
O 27.0851 12.8591 4.83608
H 26.8586 12.2654 4.06389
H 26.7956 12.4227 5.68806
O 8.24614 29.0476 1.47562
H 8.94184 0.959489 1.76916
H 7.33996 0.717361 1.56427
O 17.8386 5.21111 5.48706
H 18.1351 4.27469 5.29949
H 17.5015 5.27212 6.42655
O 5.16581 25.0299 12.5195
H 4.19719 25.2684 12.4496
H 5.46129 24.5845 11.6743
O 13.4451 6.42916 23.5768
H 12.9338 5.60548 23.3318
H 12.9466 6.93361 24.2818
O 19.0065 18.1652 7.72579
H 18.2246 18.2367 7.10643
H 18.6859 18.1978 8.67244
O 12.1861 19.0597 9.84769
H 11.4523 18.9396 10.5163
H 12.9423 19.5605 10.269
O 24.7189 11.6632 6.55542
H 25.5452 11.2059 6.88433
H 24.2189 11.0493 5.9445
O 21.2492 19.5195 20.5574
H 20.3415 19.8148 20.2592
H 21.8916 19.5952 19.7949
O 18.2321 19.9136 11.6606
H 18.3376 20.8081 11.2261
H 17.2627 19.7397 11.8344
O 4.40716 23.1665 8.29321
H 4.23692 22.4186 7.65168
H 3.6747 23.8432 8.2182
O 21.7906 13.9557 29.1869
H 21.5112 14.5188 1.22097
H 22.516 14.4225 28.681
O 21.9198 6.3974 12.8165
H 22.086 5.74865 12.0739
H 22.555 6.21481 13.567
O 9.53615 3.77844 22.298
H 9.0662 3.65562 21.4239
H 8.86062 3.89081 23.0267
O 6.26537 16.0322 13.5691
H 5.84581 16.884 13.2554
H 5.58012 15.3039 13.5705
O 23.2315 1.68197 27.1331
H 22.676 2.50994 27.0565
H 22.6798 0.945476 27.5246
O 16.8993 14.522 23.5819
H 17.1578 15.024 22.7566
H 17.7174 14.3247 24.122
O 4.19144 14.2164 25.1674
H 4.38189 15.184 25.0016
H 3.25521 14.0077 24.8846
O 15.7226 3.82496 14.3823
H 16.2624 3.13393 13.9015
H 15.358 4.48169 13.7221
O 2.06409 25.2291 12.689
H 1.8816 25.6939 13.5554
H 1.71993 24.2913 12.7349
O 0.910528 10.4433 25.6229
H 1.4725 9.6179 25.5685
H 28.9248 10.3063 26.2931
O 4.88189 11.9177 11.8754
H 4.67493 12.6704 12.5004
H 5.00226 11.0739 12.3983
O 9.97868 2.5767 1.91568
H 10.1917 3.13727 2.71591
H 10.5389 2.87327 1.14227
O 10.219 18.7245 12.1089
H 10.4486 17.8152 12.4559
H 9.36462 18.6778 11.5913
O 21.6558 12.0453 15.8428
H 21.3626 12.8966 15.4076
H 21.6834 11.3145 15.1608
O 5.90693 18.5841 12.7957
H 5.01451 18.8578 12.4369
H 6.28844 19.3286 13.3436
O 28.1469 12.1024 15.5207
H 28.1125 12.3675 14.5571
H 28.329 12.9096 16.0822
O 5.62866 13.8753 18.5195
H 5.96676 13.8551 19.4604
H 6.3951 14.0164 17.8929
O 17.1729 4.96646 10.4166
H 17.4485 4.12363 10.8788
H 16.6432 5.53429 11.0467
O 6.35059 12.0954 25.1949
H 6.88801 12.6411 25.8379
H 5.42364 12.4661 25.1367
O 7.98655 7.0834 25.0125
H 7.84766 7.44303 24.0898
H 8.04207 7.8424 25.6612
O 19.1893 2.92464 5.37092
H 20.12 2.56781 5.29105
H 18.7491 2.52996 6.17742
O 18.4498 14.3367 3.34085
H 17.6163 14.6179 2.86527
H 18.2092 13.7672 4.1268
O 26.7194 21.253 20.4578
H 26.0745 21.6778 21.0931
H 27.3906 21.9321 20.1604
O 13.5725 9.64762 11.2988
H 13.0424 9.0843 10.6651
H 14.4998 9.281 11.3749
O 2.94861 17.0193 13.8262
H 2.18168 16.5193 13.424
H 3.19204 17.7881 13.2349
O 27.9965 4.09055 23.745
H 28.5912 3.81607 22.9894
H 27.2423 4.64397 23.3914
O 6.25479 9.66408 15.8796
H 5.8552 10.279 16.5595
H 6.80754 10.1931 15.2357
O 10.3653 6.3405 26.4
H 11.0254 5.60342 26.5445
H 9.70417 6.06384 25.7025
O 22.4088 19.2592 9.55808
H 22.514 18.4342 9.00283
H 21.7747 19.0767 10.3095
O 17.9779 1.90663 7.61752
H 18.5795 1.90503 8.4163
H 17.9313 0.984481 7.23351
O 17.3504 2.2423 10.6896
H 18.1514 1.67927 10.4859
H 16.6081 2.00504 10.063
O 5.51763 0.636587 14.6434
H 4.53472 29.2101 14.5733
H 5.67784 1.42489 15.2375
O 3.42745 18.2956 19.6064
H 3.65887 17.4074 19.2094
H 3.82208 19.024 19.0463
O 18.6505 22.1394 18.5679
H 19.2054 21.745 17.8354
H 18.1123 22.9003 18.2054
O 6.20394 23.7902 10.4121
H 5.71384 23.4728 9.60029
H 6.83866 24.5188 10.1546
O 28.9042 24.4841 21.9565
H 29.0488 23.714 21.3352
H 0.788424 24.4098 22.7312
O 23.6973 26.3787 15.4946
H 23.9476 25.5214 15.0447
H 23.9622 27.1491 14.9147
O 19.4868 27.4453 21.8827
H 19.8102 26.5006 21.9364
H 19.5939 27.7816 20.947
O 8.52298 19.8064 8.79991
H 8.17775 19.0751 9.38812
H 8.38926 20.6886 9.25152
O 5.70982 11.2036 2.33931
H 5.36356 10.5114 2.97252
H 5.61896 12.1093 2.75334
O 5.75013 0.792135 2.69411
H 4.91869 28.9947 2.56822
H 5.9936 0.80838 3.66388
O 20.9471 3.79763 27.1244
H 20.4028 3.54036 27.9228
H 20.4795 4.52529 26.6226
O 12.5884 21.5361 26.2249
H 12.4529 21.769 27.1879
H 12.644 20.5424 26.1269
O 25.6703 5.52967 22.4894
H 25.0278 5.18407 21.8054
H 25.3924 6.44715 22.7741
O 6.06864 2.36735 5.30836
H 6.18069 3.29972 4.96466
H 5.33632 2.3488 5.98907
O 11.0978 26.3742 21.5807
H 11.1129 26.1221 22.5483
H 10.2179 26.7949 21.3596
O 27.295 10.0217 17.3464
H 27.8074 10.6514 16.7626
H 27.2114 10.411 18.2637
O 16.5942 1.40712 13.3919
H 15.9413 0.677114 13.19
H 17.0485 1.69095 12.5475
O 7.63711 14.7193 10.9969
H 8.02229 13.7973 11.0352
H 7.37886 15.0111 11.9179
O 7.63997 17.8367 4.18389
H 7.01957 17.6666 4.94951
H 8.56712 17.5621 4.43882
O 27.2552 7.77101 9.35276
H 28.1487 8.17922 9.53988
H 26.606 8.05152 10.0597
O 13.8884 24.3124 27.2995
H 13.7906 25.2264 27.6932
H 13.3329 24.2453 26.4707
O 4.15729 19.9849 3.45747
H 4.65142 20.4624 2.73095
H 3.56923 19.2832 3.05513
O 24.73 19.4217 28.7673
H 25.5098 19.0139 28.2923
H 24.7356 19.1344 0.981371
O 4.91392 16.8509 24.0509
H 4.07619 16.7982 23.5074
H 5.44263 17.6524 23.7715
O 25.4329 17.8482 20.9741
H 26.1578 17.9822 21.6497
H 25.4591 16.9062 20.6395
O 9.70539 8.89319 13.7541
H 9.36074 9.76683 14.0975
H 10.7036 8.88214 13.8134
O 2.72546 25.4263 8.18013
H 3.37599 25.8226 7.53221
H 2.77727 25.9198 9.04835
O 24.7486 4.12399 17.7007
H 24.7141 4.56744 16.8051
H 24.1553 3.31905 17.6972
O 3.88159 26.4846 16.6865
H 4.58889 26.3977 15.985
H 4.23804 26.1571 17.5616
O 20.6083 4.54384 17.5241
H 20.6049 5.19116 16.7619
H 19.6699 4.26561 17.7293
O 25.2901 25.0673 7.21246
H 26.0576 24.5243 7.55292
H 24.5127 24.9721 7.83425
O 26.6631 22.8558 29.0568
H 27.341 22.8938 28.3227
H 26.1399 22.0067 28.9837
O 5.61396 29.0826 28.4202
H 5.39201 28.7432 27.5061
H 6.54191 0.711568 28.4211
O 24.3127 11.6384 21.6135
H 23.6868 11.5909 20.835
H 24.0052 11.0091 22.3272
O 24.8405 2.48319 29.1864
H 25.6422 2.62887 28.6068
H 24.0187 2.45337 28.6174
O 21.8423 9.9377 13.9558
H 21.9789 10.1691 12.9926
H 22.3875 9.13148 14.1854
O 20.8183 15.3437 2.65537
H 19.8867 15.0583 2.88056
H 21.4539 14.9695 3.33054
O 29.187 16.2605 16.1496
H 29.1422 16.0934 15.1647
H 28.9773 15.4152 16.641
O 27.483 18.51 28.1864
H 27.8815 19.0549 27.4487
H 27.7549 18.894 29.0688
O 21.2752 25.6272 13.9193
H 20.5806 26.3344 14.0509
H 22.1039 25.8767 14.4204
O 23.7343 1.61083 17.5317
H 23.6908 0.901463 18.2352
H 22.8585 1.65826 17.0515
O 6.90198 19.2372 27.6991
H 6.87472 19.1063 28.6901
H 6.58959 18.4033 27.244
O 28.069 8.39918 6.68889
H 27.665 8.18274 7.57771
H 28.7047 7.67343 6.4261
O 10.6315 18.4811 7.70216
H 11.2303 18.5403 8.50084
H 9.90148 19.1599 7.78191
O 26.6878 6.08281 13.7451
H 26.9767 6.68774 14.4871
H 27.4678 5.88924 13.15
O 25.7205 15.1437 20.2665
H 25.634 14.7183 19.3657
H 25.9124 14.4399 20.9505
O 28.1547 20.1873 6.88657
H 27.7369 20.8673 6.28404
H 27.9119 19.2695 6.57243
O 15.7824 7.0327 24.7297
H 14.9289 6.97588 24.2118
H 15.963 6.15423 25.172
O 6.77592 16.9629 6.67385
H 5.93069 16.5005 6.40585
H 7.24727 16.4195 7.36849
O 12.5461 14.4468 11.7707
H 12.7993 13.7132 11.14
H 13.3728 14.9009 12.1029
O 22.8382 24.6168 5.72097
H 23.6179 24.0865 5.38808
H 22.6555 24.378 6.67472
O 24.9042 11.4239 0.711943
H 24.2471 10.8149 1.15612
H 24.4312 12.2408 29.1256
O 10.9905 18.4414 20.0123
H 10.5001 18.1546 19.1893
H 11.149 19.4282 19.979
O 2.41208 14.4792 3.10924
H 3.35559 14.3662 3.42071
H 2.36746 15.2256 2.44516
O 12.1076 24.146 20.3723
H 11.6502 24.9343 20.7838
H 13.0872 24.1892 20.5683
O 16.5878 4.25057 7.87601
H 17.0089 4.56478 8.72689
H 16.8807 3.31361 7.68537
O 23.3684 29.0301 19.9833
H 24.0357 28.3793 19.6212
H 23.807 0.86599 20.6702
O 18.4547 20.3871 20.6251
H 17.8594 20.6456 21.3859
H 18.4292 21.1005 19.9247
O 27.3337 23.4076 7.88454
H 27.3257 22.8054 7.08619
H 28.0541 24.0929 7.77788
O 20.8864 19.3931 11.7728
H 19.9138 19.6005 11.878
H 21.4226 20.2233 11.9249
O 23.7393 26.8619 10.6664
H 24.5855 26.3296 10.6449
H 23.006 26.3065 11.0585
O 6.74439 7.06094 17.397
H 7.63468 7.29218 17.7894
H 6.51754 7.71586 16.6762
O 20.7815 21.9869 16.6075
H 21.57 21.4128 16.8282
H 20.8117 22.2368 15.6397
O 2.09678 22.104 25.4388
H 2.03459 21.4771 24.6622
H 2.10098 23.0471 25.1063
O 20.4274 21.5506 23.6066
H 21.2512 21.5425 23.0398
H 20.5926 21.0266 24.4421
O 23.6563 14.201 25.0507
H 23.3585 13.2532 24.9368
H 23.0514 14.8051 24.5319
O 12.0344 26.4641 26.8663
H 12.1234 27.4508 27.0023
H 11.9267 26.0138 27.7527
O 26.2986 9.48567 4.50497
H 26.7882 10.0932 3.87955
H 26.9346 9.12882 5.18916
O 22.3718 3.63221 13.7999
H 22.1723 3.42564 14.7578
H 21.5719 3.41834 13.2392
O 11.7736 3.83259 26.233
H 12.2441 3.67224 27.1007
H 11.3469 2.98291 25.9232
O 7.59231 14.5452 8.25062
H 8.39692 13.967 8.11545
H 7.57738 14.8807 9.19256
O 19.6666 28.465 2.12877
H 19.0063 27.7683 1.84843
H 19.8876 28.3445 3.09658
O 4.79565 9.4612 13.4549
H 5.12927 8.64514 12.9829
H 5.1275 9.45974 14.3982
O 20.3936 28.1555 19.3503
H 20.6937 27.4929 18.6641
H 21.1847 28.48 19.8688
O 15.3229 16.0534 25.4373
H 16.0242 15.586 24.899
H 14.6612 15.3842 25.7755
O 11.9371 15.3905 9.27847
H 12.0544 15.1785 10.2487
H 12.6051 16.0827 9.00531
O 21.5537 2.38029 16.2104
H 21.3578 3.2755 16.6107
H 20.6978 1.88117 16.0751
O 21.347 22.6897 14.0742
H 21.8149 22.3278 13.268
H 21.3874 23.6888 14.0627
O 11.577 16.8246 22.4107
H 11.3485 17.4059 21.6298
H 12.343 17.2265 22.9125
O 14.4227 20.3136 10.7121
H 15.0094 20.5651 9.94225
H 14.9903 20.0291 11.4846
O 7.74731 1.72853 26.4672
H 6.91515 2.01344 25.9914
H 7.83066 0.732875 26.4257
O 11.748 25.746 24.1974
H 12.1636 24.8376 24.1527
H 11.8955 26.1357 25.1065
O 21.7708 17.0574 13.8985
H 21.3865 17.9256 13.5846
H 22.6271 17.2287 14.3857
O 24.293 5.46018 14.8373
H 23.7197 4.76157 14.4091
H 25.1751 5.50104 14.368
O 17.4855 25.0786 20.6013
H 18.3855 24.6575 20.7139
H 17.3399 25.7527 21.3255
O 1.40975 19.2374 24.1229
H 0.772961 19.5507 23.4184
H 2.00534 18.5296 23.743
O 0.96582 8.77336 9.56722
H 1.15558 8.70048 10.5463
H 1.64462 9.37038 9.13967
O 23.3008 9.64689 2.07739
H 23.6826 9.37296 2.96007
H 22.427 10.1112 2.22191
O 7.97958 14.5785 17.2121
H 8.61646 14.39 17.9597
H 8.44837 15.0983 16.4979
O 13.6352 11.1099 2.4367
H 13.6116 11.5494 1.5388
H 14.5686 10.8127 2.63789
O 11.9131 8.14767 25.3236
H 11.8682 9.04035 25.7721
H 11.3394 7.49612 25.8199
O 20.9543 8.17152 11.0998
H 21.3735 7.72591 11.8908
H 20.4028 7.50658 10.5961
O 2.03947 28.4883 25.8189
H 1.55117 27.7805 26.3294
H 1.40588 29.2242 25.5803
O 10.7527 5.08983 2.83153
H 11.5042 5.65151 3.17763
H 9.93044 5.65177 2.74197
O 22.2689 26.7119 26.6032
H 23.054 26.7187 27.2225
H 22.5911 26.7036 25.6566
C 2.78569 3.35984 5.27675
O 2.70362 2.1322 6.0055
H 3.1579 2.26599 6.82328
C 28.9701 4.81404 11.2322
O 29.0874 5.65938 12.3797
H 1.26991 5.83937 12.4325
C 22.4724 27.6686 7.41435
O 21.9357 27.833 8.72955
H 22.6655 27.5828 9.27516
C 14.3793 27.5265 20.0114
O 15.276 28.2194 20.8836
H 15.7354 27.5868 21.4144
C 4.45786 15.9084 10.6175
O 3.24745 15.1761 10.8262
H 2.54752 15.6919 10.4559
C 25.5616 28.7758 2.65604
O 25.2197 28.7119 1.26899
H 24.8782 0.833512 1.10287
C 15.0932 28.3566 15.9898
O 13.9586 28.0158 15.1889
H 13.171 28.2819 15.6383
C 17.6503 25.6858 2.38557
O 18.1666 26.0135 1.09287
H 18.2313 25.2066 0.605176
C 19.8079 19.8597 26.5553
O 20.9667 20.3645 25.8865
H 21.713 20.0572 26.3781
C 22.2879 10.7491 24.8982
O 23.3554 11.6571 24.6138
H 24.0227 11.395 25.2295
C 0.910407 6.0624 0.875951
O 1.2469 5.16345 1.93593
H 2.02286 4.74449 1.59625
C 7.85516 6.51507 7.85126
O 6.77939 7.42557 7.60921
H 7.03093 8.24175 8.01368
C 14.0408 14.1812 4.22316
O 15.2652 13.4988 3.94013
H 15.3942 13.8399 3.06835
C 15.6182 22.0292 2.89824
O 14.81 21.7089 1.76283
H 15.4015 21.3474 1.12059
C 28.198 19.519 2.72209
O 27.1823 19.8461 1.77015
H 26.8219 20.688 2.003
C 27.5998 22.0692 23.7924
O 26.8039 21.494 24.8319
H 26.0511 21.0908 24.4274
C 26.9272 25.2755 24.9335
O 28.2101 25.4461 25.5417
H 28.0165 26.2018 26.0749
C 23.7784 27.6825 23.5132
O 24.2515 26.7442 24.4831
H 24.8054 27.226 25.0782
C 7.46366 1.54804 8.41071
O 6.54252 1.66334 9.49842
H 7.09152 1.47874 10.2451
C 18.5535 18.3192 14.8806
O 17.2692 17.8622 14.4486
H 16.7823 17.6022 15.2156
C 19.2472 24.9679 7.01714
O 18.1596 25.892 7.10709
H 17.3709 25.57 7.51613
C 26.6496 1.34797 14.9976
O 26.4703 29.2907 16.1685
H 25.6578 0.850266 16.5439
C 22.3651 13.406 11.8374
O 23.4278 12.5722 11.3679
H 23.0245 11.8299 10.9445
C 15.0875 22.5956 21.2012
O 14.9008 23.9333 20.7313
H 15.7095 24.4072 20.8512
C 12.1426 20.1194 22.5306
O 13.1583 20.5356 23.4472
H 13.1456 19.896 24.1427
C 15.3138 5.79774 17.2971
O 16.0456 4.61987 16.9479
H 15.8321 4.40457 16.0529
C 17.858 26.9767 13.4104
O 18.9632 27.3584 14.2336
H 18.9726 28.2492 14.5491
C 19.0962 4.11623 13.4522
O 19.858 2.90633 13.4254
H 19.5462 2.36136 14.1317
C 18.1372 25.7151 17.416
O 17.0425 24.9162 17.8725
H 17.1192 25.101 18.796
C 20.1417 3.70498 21.6158
O 21.0966 4.52767 20.9403
H 20.7781 4.7644 20.0827
C 6.29623 3.09068 12.2269
O 6.93329 1.82304 12.4062
H 6.35424 1.27829 12.917
C 2.10134 7.91525 3.94075
O 2.76871 7.04897 4.8622
H 2.07469 6.58147 5.3013
C 22.1484 16.8395 22.2612
O 23.1022 16.2141 23.1238
H 23.9541 16.156 22.7188
C 9.02095 13.5196 1.91085
O 10.4378 13.4488 2.09113
H 10.8711 14.2509 1.8423
C 8.25547 4.41566 28.3246
O 6.93955 4.79854 28.7329
H 6.56632 4.1409 29.2996
C 5.53051 6.9152 11.1988
O 5.58291 7.18319 12.6025
H 6.44444 7.00227 12.9461
C 3.65866 11.0102 17.8146
O 5.06649 11.2526 17.7503
H 5.2779 12.1682 17.8504
C 10.4537 9.85998 22.8701
O 10.6231 8.44005 22.8663
H 11.1909 8.25326 23.5982
C 17.846 7.13175 29.2653
O 18.3131 8.03962 28.2641
H 17.5495 8.3724 27.8177
C 8.58718 26.9479 26.0295
O 7.4995 27.8176 25.7049
H 6.7069 27.3094 25.7853
C 1.82675 7.47095 22.2091
O 1.90266 6.2963 21.3971
H 1.29932 6.41501 20.6795
C 12.0467 2.62103 20.0274
O 13.2327 3.16688 19.4442
H 13.9486 2.92248 20.0106
C 24.4831 23.8742 22.4218
O 24.8636 22.5218 22.155
H 24.1135 21.9688 22.3118
C 9.87011 11.6193 11.7679
O 9.10669 12.3957 10.8409
H 9.67664 12.5572 10.1046
C 22.3745 10.5079 9.24474
O 22.4756 10.157 10.6273
H 21.8614 9.43958 10.6602
C 17.4371 7.49143 7.8025
O 16.027 7.72416 7.8523
H 15.9502 8.56414 7.42622
C 0.628665 19.6526 14.3711
O 29.1756 19.8576 12.9697
H 0.925696 19.1924 12.5151
C 8.20923 14.6663 27.4063
O 7.59019 13.4161 27.092
H 6.96927 13.2397 27.7822
C 1.33194 9.61845 13.2394
O 1.37594 8.60383 12.2327
H 1.85411 7.88538 12.6177
C 16.9701 10.3166 23.3517
O 18.3559 10.142 23.0455
H 18.6144 9.28212 23.3401
C 25.6389 24.9757 3.49872
O 25.1292 24.2227 4.60239
H 25.2935 24.7948 5.3364
C 20.5474 11.6149 3.76918
O 21.1486 11.6727 2.47301
H 21.5521 12.5223 2.38136
C 17.1009 10.6923 19.799
O 17.6065 11.2032 18.5628
H 18.5344 11.1046 18.7121
C 17.2521 14.1466 6.51271
O 17.231 12.8376 5.93727
H 16.3768 12.7399 5.54515
C 19.1646 21.8038 4.70128
O 18.6913 20.4964 4.36703
H 19.0929 20.2913 3.53658
C 20.2321 11.0282 27.6447
O 20.1856 12.4194 27.3171
H 20.7145 12.8541 27.9685
C 12.9011 24.1658 10.034
O 13.772 24.0863 8.90258
H 13.2229 23.8363 8.17527
C 13.0786 13.3393 29.1748
O 13.8362 12.2219 28.7033
H 13.7232 12.256 27.7657
C 24.0965 8.38031 18.6253
O 24.7754 8.58016 17.3827
H 25.5712 9.08091 17.4776
C 25.4177 18.3941 6.00113
O 26.6653 17.8373 6.42335
H 26.6955 17.0862 5.8507
C 12.516 3.45322 16.2089
O 11.4712 2.76911 15.5122
H 11.9411 2.34848 14.8083
C 14.0495 5.8311 11.5314
O 15.1257 5.6127 12.4473
H 15.5194 6.47155 12.4685
C 14.0194 14.418 18.2768
O 14.4495 14.7463 16.9531
H 15.3339 14.4278 16.8565
C 28.2396 17.5986 18.9146
O 28.217 18.2854 17.6606
H 28.6323 17.6425 17.1063
C 16.882 3.14431 2.1914
O 17.314 2.50678 0.986468
H 18.2562 2.44497 1.02575
C 17.8791 6.68221 22.2979
O 18.2886 7.38338 23.475
H 17.5076 7.45353 24.0024
C 4.46883 13.2258 28.3028
O 5.73987 12.8534 28.8419
H 5.54475 12.3115 0.847433
C 13.8258 18.1065 2.54172
O 13.2423 16.8595 2.92822
H 12.674 17.0323 3.66326
C 4.41133 22.4462 22.0269
O 3.73144 21.5151 22.8729
H 4.37799 20.9663 23.2898
C 10.9483 25.3009 3.6221
O 10.966 26.1873 2.50006
H 10.1481 26.2698 2.03393
C 14.9313 29.164 25.3693
O 14.8226 28.9997 26.7857
H 13.9106 28.9076 27.0155
C 11.1455 8.35946 0.762036
O 11.0405 9.65896 28.9182
H 10.8116 10.3311 0.798116
C 1.34763 4.9543 26.0034
O 28.7454 4.47627 26.0723
H 28.4908 4.58384 25.1686
C 4.00377 2.49845 25.7567
O 5.29494 2.18795 25.2263
H 5.14997 2.45493 24.3314
C 17.6795 13.9679 16.1344
O 17.014 13.7898 17.3874
H 17.3768 13.0051 17.769
C 10.8184 8.37194 9.40148
O 12.2228 8.19518 9.60509
H 12.5055 7.91157 8.74913
C 11.0608 12.2998 7.76976
O 10.3422 13.1205 8.69435
H 10.7366 13.9741 8.78813
C 2.23684 13.6197 20.1355
O 1.81087 14.098 18.857
H 2.51421 14.6898 18.6377
C 7.23416 7.84324 21.3625
O 7.72415 8.2232 22.6511
H 8.66791 8.17769 22.635
C 7.16862 18.3855 20.2585
O 6.55657 19.4208 21.032
H 6.1128 19.9765 20.4097
C 24.6807 6.07112 26.3583
O 24.5024 7.47874 26.1802
H 24.0764 7.70378 26.9932
C 24.445 14.3653 8.86594
O 24.1843 14.4752 7.46421
H 24.2062 13.6015 7.10486
C 27.6268 26.0883 16.6539
O 27.8949 27.1933 15.7867
H 27.3757 27.9412 16.04
C 27.3623 11.4873 8.61663
O 27.5656 11.0418 7.27309
H 27.7591 10.118 7.22605
C 28.021 3.69888 3.96291
O 28.0557 5.10683 3.7152
H 28.8426 5.33407 3.244
C 27.5548 14.8825 28.5691
O 26.6127 15.8585 28.1167
H 26.9665 16.7123 28.3142
C 11.632 27.7887 17.8603
O 11.2548 27.7347 16.482
H 10.731 28.5097 16.3474
C 8.96274 29.3005 22.1711
O 8.89052 28.2287 21.2272
H 8.49429 28.6549 20.4827
C 8.88629 5.49361 13.7563
O 8.32541 6.67861 13.1852
H 8.91209 7.40703 13.3202
C 10.5445 11.4072 26.0563
O 11.5907 10.6287 26.6431
H 11.3107 10.2329 27.4542
C 5.77932 28.5816 18.5811
O 6.78263 0.833907 18.7959
H 6.81642 1.36474 18.0148
C 2.36735 10.9911 22.598
O 3.62773 11.2513 21.9746
H 4.33197 10.8283 22.4416
C 12.6097 18.3015 26.7376
O 13.4229 18.9043 25.7275
H 13.8657 18.1715 25.3276
C 19.8154 7.17843 18.9865
O 20.0546 7.89489 17.7722
H 20.0841 7.34117 17.007
C 1.77485 1.77269 13.8168
O 2.76322 0.77682 14.0929
H 2.29589 28.7115 14.2346
C 3.26026 22.6261 5.27811
O 3.34177 21.346 5.91018
H 3.434 20.6341 5.29561
C 22.7287 17.7969 26.5289
O 22.9946 19.1613 26.8645
H 23.7399 19.2578 27.4374
C 19.2074 23.6373 26.6964
O 17.9255 24.2312 26.9174
H 17.9142 25.095 26.5345
C 1.49164 16.5532 22.0358
O 2.71022 17.2726 22.2419
H 3.15837 17.4152 21.4222
C 1.59524 17.0929 5.38568
O 0.909319 16.2871 4.42391
H 1.52114 15.6656 4.05995
C 9.63168 14.5079 24.0241
O 10.805 15.2327 24.4021
H 10.9935 15.7231 23.6166
C 4.06416 3.863 8.81334
O 4.58881 2.85637 7.94367
H 5.36393 2.53706 8.37984
C 18.9148 11.5448 11.0179
O 17.9726 10.9963 10.0926
H 18.2632 11.2238 9.22266
C 15.9891 21.6011 7.8263
O 16.4631 20.961 9.01392
H 17.2237 21.3918 9.37302
C 22.2625 21.3442 6.7474
O 22.1651 21.6835 8.13313
H 22.3375 20.91 8.64784
C 26.4092 28.9794 10.7296
O 26.3781 0.950425 9.49145
H 27.0771 0.702425 8.9059
C 25.3491 18.5657 14.7182
O 24.127 19.1922 14.3199
H 24.3296 20.0095 13.8909
C 14.2361 25.395 5.8422
O 12.9101 25.1236 6.30358
H 12.5472 25.9728 6.50369
C 6.84226 20.8755 5.72682
O 6.598 21.8448 6.74948
H 6.53365 21.2648 7.49282
C 7.38768 12.6446 13.9799
O 7.86395 11.582 14.8099
H 8.48637 11.9552 15.4152
C 4.29214 27.4332 4.78703
O 4.08039 26.8566 6.07839
H 4.68645 26.1367 5.99233
C 6.88736 24.836 5.17063
O 5.69981 24.8621 5.96684
H 5.67421 24.0542 6.45643
C 15.5813 14.0691 12.928
O 14.9361 15.3413 12.8278
H 15.1724 15.6814 11.9784
C 20.9812 24.9122 23.4751
O 20.2317 24.6922 22.2773
H 19.8706 23.819 22.2866
C 13.2092 4.65031 0.738801
O 12.7065 3.54804 28.7228
H 13.4731 3.18102 28.3097
C 18.624 1.17214 24.3152
O 18.2401 28.6091 23.8794
H 18.8676 28.3025 23.2429
C 16.7487 17.7974 4.30879
O 17.5287 18.2502 5.41849
H 17.9653 19.033 5.11907
C 17.557 4.30363 26.1351
O 16.2021 4.59511 25.7828
H 15.652 4.19763 26.4404
C 23.6883 21.8031 2.44185
O 22.9981 20.7795 3.16357
H 22.1506 20.7232 2.74934
C 27.7911 10.8287 20.6546
O 26.5531 11.0968 19.9909
H 25.861 11.1011 20.6343
C 28.8375 16.3557 9.25723
O 1.48449 16.5502 9.5277
H 1.67869 17.4604 9.36381
C 23.9599 13.5569 4.11086
O 22.8448 14.3977 4.41825
H 23.0536 14.8452 5.22395
C 20.7773 2.1502 10.0292
O 20.0301 1.13523 9.35354
H 20.5571 29.0954 9.31736
C 9.63696 9.2858 5.40149
O 10.4897 8.66958 4.43302
H 10.6946 9.40904 3.88142
C 27.1038 27.2405 21.471
O 27.1374 26.1056 20.6016
H 27.6252 25.4676 21.0997
C 29.1473 23.3044 2.57015
O 27.8838 22.7086 2.87593
H 27.4119 22.7847 2.06077
C 25.5018 1.42178 5.93636
O 24.7819 1.56038 7.16416
H 25.0415 0.881324 7.76792
C 13.4809 24.7876 17.5828
O 14.52 23.8621 17.2533
H 15.3314 24.3139 17.4276
C 13.8419 7.03849 3.97853
O 12.4407 6.91353 3.72163
H 11.9649 7.66547 4.03978
C 18.348 16.0718 20.4755
O 18.3712 16.5565 21.8207
H 18.5105 17.4911 21.8335
C 18.7559 17.4531 1.19551
O 20.0916 17.5895 1.68773
H 20.403 16.8058 2.11407
C 25.2013 23.0311 16.6915
O 25.5206 21.8575 15.9396
H 25.6981 21.2076 16.6023
C 7.49113 24.1521 23.7619
O 7.28362 23.9912 22.3562
H 8.08128 23.5558 22.0971
C 3.65374 25.1044 19.8006
O 4.84436 25.4483 19.0871
H 5.55256 25.5502 19.7045
C 24.0835 25.3162 28.9846
O 24.1526 26.6441 28.4584
H 24.4414 27.2706 29.1042
C 28.1427 7.13662 18.7786
O 28.9349 6.15651 19.4545
H 28.9284 5.41499 18.8687
C 23.7216 17.2275 3.12395
O 24.3399 18.3637 2.51427
H 24.0987 19.159 2.9641
C 17.4183 29.1445 18.5443
O 18.6715 0.782416 17.9709
H 19.3633 29.1931 18.522