created by fftool

1 atoms
1 atom types
0.000000 11.84 xlo xhi
0.000000 11.84 ylo yhi
0.000000 11.84 zlo zhi

Masses

   1   16.04  # LJ/Methane

Atoms

      1       1    1   0.000000  1.714400e+00  1.500000e+00  1.500000e+00  # LJ
